################################################################################
# Symmetry function scaling data.
################################################################################
# Col  Name     Description
################################################################################
# 1    e_index  Element index.
# 2    sf_index Symmetry function index.
# 3    sf_min   Symmetry function minimum.
# 4    sf_max   Symmetry function maximum.
# 5    sf_mean  Symmetry function mean.
# 6    sf_sigma Symmetry function sigma.
#########################################################################################################################
#        1          2                        3                        4                        5                        6
#  e_index   sf_index                   sf_min                   sf_max                  sf_mean                 sf_sigma
#########################################################################################################################
         1          1   0.0000000000000000E+00   1.0743253722073002E+01   1.6952381657372069E+00   1.6700199787896743E+00
         1          2  -6.8051060926918365E-17   7.0842023768664175E+00   8.5499306026513705E-02   2.4597822089387125E-01
         1          3   0.0000000000000000E+00   4.9942964198905040E+00   1.2726241131737765E+00   1.3158546877916473E+00
         1          4   0.0000000000000000E+00   1.0027651463107977E+01   1.5691162031878532E+00   1.5409282765662469E+00
         1          5  -5.2209643484013289E-17   6.6287415884869292E+00   7.7050693722028565E-02   2.2642123665957903E-01
         1          6   0.0000000000000000E+00   4.6624728619219651E+00   1.1835457887504293E+00   1.2246919719139475E+00
         1          7   0.0000000000000000E+00   8.8945857960513415E+00   1.3549808061220263E+00   1.3210881665781666E+00
         1          8  -3.0731402604437224E-17   5.8326928196619425E+00   6.2951658018056120E-02   1.9369486221320506E-01
         1          9   0.0000000000000000E+00   4.1011290399130216E+00   1.0274129767237159E+00   1.0648962411147564E+00
         1         10   0.0000000000000000E+00   7.4079361747871726E+00   1.0676314895373160E+00   1.0255150934085946E+00
         1         11  -1.1838027937050006E-17   4.6997585493789664E+00   4.4659837540811105E-02   1.5081685905851847E-01
         1         12   0.0000000000000000E+00   3.3113308225291025E+00   8.0494689054559809E-01   8.3714402735318993E-01
         1         13   0.0000000000000000E+00   5.4913020307904468E+00   7.5347812040202522E-01   7.0571043478951712E-01
         1         14  -2.1714041090017275E-18   3.3117689146157376E+00   2.5911491292369363E-02   1.0507281186877965E-01
         1         15   0.0000000000000000E+00   2.3317644711947749E+00   5.3534566105212189E-01   5.6084719304917885E-01
         1         16   0.0000000000000000E+00   3.3740785441158123E+00   4.8330864185710737E-01   4.4696096624511805E-01
         1         17  -9.5224218596245698E-20   1.8572729374677430E+00   1.1718638458751261E-02   6.4535010130561135E-02
         1         18   0.0000000000000000E+00   1.3595466969861632E+00   2.6691844328750192E-01   2.8474503625442366E-01
         1         19   0.0000000000000000E+00   1.7848827351022136E+00   3.0700069362648191E-01   2.9856570649882286E-01
         1         20  -3.1112097232475171E-22   7.6175597288366059E-01   4.5363930615956180E-03   3.3775263280418549E-02
         1         21   0.0000000000000000E+00   6.3856109859754351E-01   8.2356935582851828E-02   9.2314235621336005E-02
         1         22   0.0000000000000000E+00   1.1767610273772917E+00   1.9089529330668883E-01   1.9704211946275380E-01
         1         23  -1.3891449346602950E-26   4.2190789070859858E-01   1.5493952507034670E-03   1.3612797459636483E-02
         1         24   0.0000000000000000E+00   3.9926626554611500E-01   1.2181438153951953E-02   1.5804137941891332E-02
         1         25   0.0000000000000000E+00   7.3641017353249261E+00   1.3176514971252951E-01   3.4960926524761859E-01
         1         26   0.0000000000000000E+00   8.4404493497772481E-01   2.4797592479017983E-03   2.0562508241277640E-02
         1         27   0.0000000000000000E+00   1.5849766722305858E+00   4.2166253975715079E-02   8.7374898421967814E-02
         1         28  -7.2990649190430920E-20   2.2363371178960785E+00   8.8328371035751988E-04   3.7971115094068350E-02
         1         29   0.0000000000000000E+00   9.8416577351609169E-01   7.8938701854051972E-03   2.9137269574678368E-02
         1         30  -1.8869265007675880E-18   1.2212113990598059E+00   7.5618363550011392E-02   1.0036139627744030E-01
         1         31   0.0000000000000000E+00   1.6941807405427973E+01   3.3292071781520294E-01   8.7986937606491766E-01
         1         32   0.0000000000000000E+00   2.2885861831352430E+00   1.3766989046038730E-02   1.3241057396755038E-01
         1         33   0.0000000000000000E+00   3.7839323250414227E+00   1.3962290713371725E-01   2.5046068078703565E-01
         1         34  -2.6849543002735553E-19   4.6624962043759481E+00   2.1062380520996396E-03   8.5341607469729561E-02
         1         35   0.0000000000000000E+00   2.1115159289057575E+00   2.7043216058192786E-02   7.8328973047580061E-02
         1         36  -1.5230066800632588E-17   1.5896265812282575E+00   8.3664024972334258E-02   1.0896422773843888E-01
         1         37   0.0000000000000000E+00   1.6132051070610396E+00   1.8810501664972921E-02   5.3523440304836356E-02
         1         38   0.0000000000000000E+00   2.7388655405060058E-01   1.2374802223894880E-04   2.3848827481551755E-03
         1         39   0.0000000000000000E+00   3.0528177379665034E-01   1.1032522425646495E-03   5.3313753779025506E-03
         1         40  -3.2564044304327557E-23   2.2704252766556604E-01   6.3890132160776355E-05   2.7579386930914346E-03
         1         41   0.0000000000000000E+00   3.9132179125991812E-01   1.3572611807564770E-04   2.2921422367845447E-03
         1         42  -3.0717969160014400E-23   1.9592224149005411E-01   4.9717312189822517E-03   8.8426616211403752E-03
         1         43   0.0000000000000000E+00   6.5112440693386349E+00   1.5556443588290786E-01   3.8847569970712387E-01
         1         44   0.0000000000000000E+00   1.3357006183442857E+00   7.6349492544307111E-03   7.8817215837323498E-02
         1         45   0.0000000000000000E+00   1.7295559517375825E+00   4.9208171888408307E-02   8.3701977406792333E-02
         1         46  -8.0678231088799197E-20   1.3616815251408969E+00   6.7628700728037717E-04   2.5460273174939423E-02
         1         47   0.0000000000000000E+00   7.5744082440391614E-01   9.1948591847031570E-03   2.4728023425503221E-02
         1         48  -8.4932409622201744E-18   3.4570246506345725E-01   7.4806317718348770E-03   1.0574013070703691E-02
         1         49   0.0000000000000000E+00   4.1548326635783901E+01   1.5913396255031027E+00   3.6790234550188021E+00
         1         50   0.0000000000000000E+00   4.6812991317137769E+00   3.3177240649070128E-02   1.5270649905336178E-01
         1         51   0.0000000000000000E+00   1.0055863986986004E+01   5.5836266213358721E-01   1.0249828960172764E+00
         1         52  -4.6363845569966434E-18   1.7652648852445800E+01   1.3952096103449121E-02   3.3872875552797860E-01
         1         53   0.0000000000000000E+00   5.6441056267252563E+00   1.0204663891241759E-01   3.0851287801838034E-01
         1         54  -7.9199457110139018E-18   8.7768332034705097E+00   1.0972126002136628E+00   1.3741773927724901E+00
         1         55   0.0000000000000000E+00   3.8166192042499084E+01   1.3701263627133953E+00   3.2688315561739949E+00
         1         56   0.0000000000000000E+00   4.2786234526312796E+00   3.6560178789316541E-02   2.0493624988407858E-01
         1         57   0.0000000000000000E+00   9.3012857953706476E+00   4.8825786868680066E-01   8.2525328668171360E-01
         1         58  -1.5169583147699032E-17   1.4730197116548601E+01   1.0186818366361263E-02   2.8147009138229967E-01
         1         59   0.0000000000000000E+00   5.5063536445610062E+00   1.0749296660232127E-01   3.0102953266475352E-01
         1         60  -6.3924748625374331E-17   6.7006313541035007E+00   7.6418538479361942E-01   9.2661026263673685E-01
         1         61   0.0000000000000000E+00   1.2866783951176409E+01   4.7442781993715311E-01   1.0814780975739124E+00
         1         62   0.0000000000000000E+00   1.8542325284335244E+00   9.3415893349663576E-03   5.2042212517081694E-02
         1         63   0.0000000000000000E+00   3.5415142378009401E+00   1.6928534495981423E-01   3.3234236250597671E-01
         1         64  -2.0014451521363553E-20   4.9546680394003637E+00   4.0696913717143306E-03   9.1267508454485696E-02
         1         65   0.0000000000000000E+00   2.2037617958350828E+00   2.8569031593237860E-02   9.2603672186262226E-02
         1         66  -1.2893170348762760E-22   2.5961565123250603E+00   2.8747534663969365E-01   3.8948039217094754E-01
         1         67   0.0000000000000000E+00   9.4902955473985440E+00   3.1400696498761044E-01   7.5132986843140870E-01
         1         68   0.0000000000000000E+00   1.6008405206464271E+00   1.1402504958653704E-02   9.9668632890343486E-02
         1         69   0.0000000000000000E+00   2.7216473781693669E+00   1.0734999304206450E-01   1.7345939748235725E-01
         1         70  -4.5581972646093984E-18   2.6716687359317626E+00   1.5107165708921710E-03   5.0734890783219105E-02
         1         71   0.0000000000000000E+00   1.3743616478745355E+00   2.5732046346319676E-02   6.8016246844272918E-02
         1         72  -3.5648451226891952E-17   7.7442011203572358E-01   5.2694856378287337E-02   6.6700099003154170E-02
         1         73   0.0000000000000000E+00   2.0436357370789203E+01   5.7965117384885834E-01   1.3618516281378954E+00
         1         74   0.0000000000000000E+00   2.5474692650230271E+00   1.0638996579931673E-02   6.4538557240623490E-02
         1         75   0.0000000000000000E+00   4.3301259712095233E+00   1.9610076345955010E-01   3.9345068426841878E-01
         1         76  -2.8351800212338374E-19   7.9283994063248819E+00   4.6808140608665437E-03   1.4698260077273886E-01
         1         77   0.0000000000000000E+00   2.5982914129000130E+00   3.1234713061556091E-02   1.0537782000284789E-01
         1         78  -6.0412278585391851E-19   3.9650180786108353E+00   4.3486673698208095E-01   5.5655250322101735E-01
         1         79   0.0000000000000000E+00   1.8858458168185273E+01   4.6604541536383021E-01   1.1581295948845813E+00
         1         80   0.0000000000000000E+00   2.3363327782547745E+00   1.4181695892647062E-02   1.0614372715360926E-01
         1         81   0.0000000000000000E+00   3.8872026592910123E+00   1.6944833682088742E-01   3.1081445640412136E-01
         1         82  -9.1368973062496179E-19   6.4184635969459229E+00   3.4460344384313374E-03   1.1883922903391726E-01
         1         83   0.0000000000000000E+00   2.2210798374286571E+00   3.2347507244255801E-02   9.8737249178532896E-02
         1         84  -4.8760936796407295E-18   2.9039702615343703E+00   2.8674032702695290E-01   3.5310225242974352E-01
         1         85   0.0000000000000000E+00   6.1765159760387700E+00   1.7962556069843713E-01   4.1504909548950730E-01
         1         86   0.0000000000000000E+00   1.0836701904499735E+00   2.9815897118013711E-03   2.2932268126930017E-02
         1         87   0.0000000000000000E+00   1.6200201887125685E+00   6.0318571194835906E-02   1.3163807054402307E-01
         1         88  -1.2238970342460358E-21   2.2617915154961543E+00   1.3281716215435655E-03   3.8630146889340307E-02
         1         89   0.0000000000000000E+00   1.1570018141843101E+00   8.8506522659912070E-03   3.2549827715854546E-02
         1         90  -9.8347365926407976E-24   1.1653038057056486E+00   1.1003134657705073E-01   1.5403612502832184E-01
         1         91   0.0000000000000000E+00   4.5532844588999053E+00   1.0084327653071953E-01   2.5823547360471494E-01
         1         92   0.0000000000000000E+00   9.7377059235513086E-01   5.3902247054060269E-03   5.5459478827802174E-02
         1         93   0.0000000000000000E+00   1.1343051815982583E+00   3.5323835982970481E-02   6.1556317899695970E-02
         1         94  -2.7454795496263364E-19   1.0902965746809090E+00   5.2963501385098013E-04   2.0120380419643192E-02
         1         95   0.0000000000000000E+00   5.6419221276840636E-01   7.3005940060133483E-03   2.0291871732009262E-02
         1         96  -2.7192158194491576E-18   2.6177205872414822E-01   1.5545888005234161E-02   1.9915261868524155E-02
         1         97   0.0000000000000000E+00   4.3104755287172418E+00   7.4409617852062571E-02   1.8890996811228952E-01
         1         98   0.0000000000000000E+00   6.1419423720283783E-01   1.0752600784717712E-03   1.0621898374714429E-02
         1         99   0.0000000000000000E+00   8.6414992552704029E-01   1.8845979231773367E-02   4.7513092187575143E-02
         1        100  -2.2447162826972803E-22   1.3282260370403900E+00   5.4573784186031878E-04   2.2348388496547449E-02
         1        101   0.0000000000000000E+00   8.2701522885277856E-01   2.2647575954667402E-03   1.2885467930101291E-02
         1        102  -8.4148043807400073E-22   7.3961031881519701E-01   5.1000309787073046E-02   7.1295447535636949E-02
         1        103   0.0000000000000000E+00   4.0294256806788225E+00   4.8532922424961655E-02   1.3555875134295053E-01
         1        104   0.0000000000000000E+00   6.8319019123230817E-01   2.2475016786818970E-03   2.3642864315444226E-02
         1        105   0.0000000000000000E+00   8.5205323141460454E-01   1.6126806756108218E-02   3.8093966260391895E-02
         1        106  -6.9594351361501729E-22   1.0223181604824156E+00   4.0486730125143742E-04   1.7378164032375281E-02
         1        107   0.0000000000000000E+00   3.5667456003700521E-01   2.1446961747763251E-03   9.9679413834921644E-03
         1        108  -6.7918932073290762E-21   4.3128749858311033E-01   3.0132808283316562E-02   3.9521144582094769E-02
         1        109   0.0000000000000000E+00   1.5822967195182798E+00   2.5784875496112348E-02   6.7935125737056234E-02
         1        110   0.0000000000000000E+00   3.4402964882796971E-01   2.9781540876083122E-04   4.1694424495454822E-03
         1        111   0.0000000000000000E+00   3.5620795280277240E-01   5.8846056130783114E-03   1.6716950010416440E-02
         1        112  -9.6900428916023227E-25   4.1431075592305022E-01   1.4791691107246177E-04   5.6868972956769124E-03
         1        113   0.0000000000000000E+00   4.4428150566810592E-01   6.4242813055413305E-04   4.2287067681401171E-03
         1        114  -1.3698768942509181E-26   2.9633685802761611E-01   1.2255441832305008E-02   1.9243994266804860E-02
         1        115   0.0000000000000000E+00   8.8303805376309441E-01   8.6205314871231047E-03   2.7279741204459137E-02
         1        116   0.0000000000000000E+00   3.4698274632354081E-01   1.0932667058912190E-03   1.3029221238456810E-02
         1        117   0.0000000000000000E+00   1.6429453756432913E-01   2.9205796298134553E-03   6.4940315842697983E-03
         1        118  -2.0911898429877438E-22   1.5888415587053889E-01   6.2851921220902077E-05   2.7192267755088129E-03
         1        119   0.0000000000000000E+00   9.5604580110007137E-02   3.8633158557442728E-04   1.3629781088304359E-03
         1        120  -3.7875858559672442E-21   5.9424265854059841E-02   9.9318709491118436E-04   1.3380877700809749E-03
         1        121   0.0000000000000000E+00   1.4860805157866410E+00   1.2909330297218713E-02   3.9872462669433402E-02
         1        122   0.0000000000000000E+00   2.1697363835077510E-01   1.5605174356174870E-04   2.1336678803345085E-03
         1        123   0.0000000000000000E+00   2.6245021732497259E-01   2.1157419802927116E-03   7.0751380435716037E-03
         1        124  -8.8377674799393449E-26   2.4239984384305804E-01   7.7497067614593944E-05   3.3501690102278260E-03
         1        125   0.0000000000000000E+00   3.0062404432222323E-01   2.2805949089681817E-04   2.4672149186094924E-03
         1        126  -6.1597570780059720E-25   1.6088919571947474E-01   5.9172240026138436E-03   9.5184154284885334E-03
         1        127   0.0000000000000000E+00   1.2955325467110490E+00   6.8605493706116747E-03   2.4065335562029316E-02
         1        128   0.0000000000000000E+00   2.3198519145068550E-01   4.2387227532483487E-04   5.0908289789967382E-03
         1        129   0.0000000000000000E+00   2.4229972299597172E-01   1.8769082003778101E-03   6.2928947081236980E-03
         1        130  -2.6260652536186164E-25   1.7212655207929695E-01   5.7521038632138226E-05   2.5759952188196943E-03
         1        131   0.0000000000000000E+00   1.0570361202971119E-01   1.8489417893257805E-04   1.5549711475378919E-03
         1        132  -4.9717629030880477E-24   8.4972665741081685E-02   3.1911901194996263E-03   4.6652221157614760E-03
         1        133   0.0000000000000000E+00   1.0076522431358850E+00   4.9645385457675476E-03   1.8047485524115680E-02
         1        134   0.0000000000000000E+00   1.2884452520115913E-01   4.1863853165096210E-05   9.0606167248489795E-04
         1        135   0.0000000000000000E+00   1.2746033660365860E-01   6.3079496892407753E-04   2.4793894917718301E-03
         1        136  -3.8151077981096251E-28   7.9029534776890398E-02   2.0497490354580739E-05   8.4448336044431224E-04
         1        137   0.0000000000000000E+00   1.7335583452569767E-01   6.2938366573633549E-05   9.2626168935726620E-04
         1        138  -1.0027694659987896E-29   1.0026948367435244E-01   1.4253411107100625E-03   2.7723716508255315E-03
         1        139   0.0000000000000000E+00   4.1072210243165225E-01   9.7188429518541561E-04   4.7188663887927570E-03
         1        140   0.0000000000000000E+00   1.1337426900752751E-01   2.1974858389518380E-04   2.7728666515240952E-03
         1        141   0.0000000000000000E+00   4.9984709623384603E-02   2.9075668088928943E-04   9.0341671965359766E-04
         1        142  -7.8908717129421117E-26   2.5229353895306634E-02   8.6568218254778195E-06   3.8591807377496071E-04
         1        143   0.0000000000000000E+00   2.3788563002781413E-02   2.3001058278871328E-05   1.3420222442165207E-04
         1        144  -2.7725669818598705E-24   1.2017407698195337E-02   7.2657579526205838E-05   1.0760941358278443E-04
         2          1   0.0000000000000000E+00   2.2141659706148097E+01   8.0314381099853260E-01   1.2435599780638655E+00
         2          2   0.0000000000000000E+00   2.7301712660954003E+01   3.0139562348356876E+00   4.5727966709623287E+00
         2          3   0.0000000000000000E+00   1.4073590587167610E+01   8.8231876105412930E+00   2.5398938660809396E+00
         2          4   0.0000000000000000E+00   1.8950458251029232E+01   6.7405283383460401E-01   1.0567024981653679E+00
         2          5   0.0000000000000000E+00   2.3162376033542529E+01   2.4758039521903386E+00   3.8907701246530420E+00
         2          6   0.0000000000000000E+00   1.2006964347400327E+01   7.5336557286021675E+00   2.1613400439851986E+00
         2          7   0.0000000000000000E+00   1.4301486615218913E+01   4.8534186667985313E-01   7.8405395681637124E-01
         2          8   0.0000000000000000E+00   1.7161829365533929E+01   1.7137399690328561E+00   2.8969752208269197E+00
         2          9   0.0000000000000000E+00   9.0148456166189135E+00   5.6585040757163672E+00   1.6136791289541543E+00
         2         10   0.0000000000000000E+00   9.3664748543897822E+00   2.8529143714905020E-01   4.9669207675056509E-01
         2         11   0.0000000000000000E+00   1.0818981007582844E+01   9.5171230772091642E-01   1.8345938068593539E+00
         2         12   0.0000000000000000E+00   5.8709255641846410E+00   3.6591820772967036E+00   1.0363797485248052E+00
         2         13   0.0000000000000000E+00   5.3663757947634281E+00   1.2769767279732541E-01   2.7435923402499057E-01
         2         14   0.0000000000000000E+00   5.6292275686375364E+00   4.0227014615883860E-01   9.5170976452805500E-01
         2         15   0.0000000000000000E+00   3.3282004089628385E+00   1.9692984067713233E+00   5.5786584362257718E-01
         2         16   0.0000000000000000E+00   2.8643474226925738E+00   4.0951458611156948E-02   1.5043903187713623E-01
         2         17   0.0000000000000000E+00   2.2945066243366248E+00   1.2675522899793365E-01   3.8274589263779379E-01
         2         18   0.0000000000000000E+00   1.6457279820304902E+00   7.7618659297363168E-01   2.2604711339984201E-01
         2         19   0.0000000000000000E+00   1.6384925569816930E+00   1.1500560870037651E-02   8.3166085091300468E-02
         2         20   0.0000000000000000E+00   7.7313015929544027E-01   3.3395686004027113E-02   1.1726966166471711E-01
         2         21   0.0000000000000000E+00   6.7774444886202945E-01   1.6877061724857828E-01   5.5802610428867347E-02
         2         22   0.0000000000000000E+00   8.4251789713788838E-01   3.4830792205802403E-03   3.5496656826786079E-02
         2         23   0.0000000000000000E+00   3.2887927069667117E-01   6.1964073547346081E-03   2.2529866428963510E-02
         2         24   0.0000000000000000E+00   2.3828553407579825E-01   1.3496301975535661E-02   7.0194700728488744E-03
         2         25   0.0000000000000000E+00   1.5214721958895284E+01   4.0484885572707845E-02   3.8086385913479337E-01
         2         26   0.0000000000000000E+00   4.8041756165091503E+00   3.8323593524406875E-02   2.3900080912723906E-01
         2         27   0.0000000000000000E+00   4.9774879348730785E+00   2.2297259466383143E-01   3.9659258690340404E-01
         2         28   0.0000000000000000E+00   1.6573708554449617E+01   5.4775568515084205E-01   2.1491164215021770E+00
         2         29   0.0000000000000000E+00   3.6992940433134627E+00   3.2759257693888844E-01   3.3353604145393168E-01
         2         30   0.0000000000000000E+00   5.8480218216843767E+00   2.1701511706577734E+00   7.4765821030901392E-01
         2         31   0.0000000000000000E+00   3.1281375308057630E+01   9.4716742904346923E-02   6.4247393871881375E-01
         2         32   0.0000000000000000E+00   1.0498711428924484E+01   1.1928004715237350E-01   6.7840476605924049E-01
         2         33   0.0000000000000000E+00   1.2543073488567769E+01   7.9162865453708608E-01   1.2885073497300543E+00
         2         34   0.0000000000000000E+00   4.4178336663296228E+01   1.4657046790804678E+00   5.7349887200865064E+00
         2         35   0.0000000000000000E+00   7.6397235517695883E+00   1.4872918603409280E+00   1.1431719570162084E+00
         2         36   0.0000000000000000E+00   1.0547755556017419E+01   3.8964672327810224E+00   1.3999874903246130E+00
         2         37   0.0000000000000000E+00   2.7280755815194158E+00   3.5873186445048878E-03   5.0758246269370956E-02
         2         38   0.0000000000000000E+00   7.4988440521376998E-01   2.8393873972736407E-03   3.0338842191057092E-02
         2         39   0.0000000000000000E+00   8.9540583490823189E-01   1.3524846713051691E-02   4.0325644019803528E-02
         2         40   0.0000000000000000E+00   1.3488909623758090E+00   3.7797458530558270E-02   1.5219941859133473E-01
         2         41   0.0000000000000000E+00   7.8581139064301819E-01   1.2859383181569253E-02   3.3275650352311899E-02
         2         42   0.0000000000000000E+00   7.5190779240021210E-01   1.8165555425941599E-01   7.0162967747829097E-02
         2         43   0.0000000000000000E+00   1.2264182053134434E+01   3.7550657861949437E-02   2.4982762611929268E-01
         2         44   0.0000000000000000E+00   4.8649286343025340E+00   4.8585760588040434E-02   3.0453221955729898E-01
         2         45   0.0000000000000000E+00   5.4677058082936316E+00   3.6687343483561580E-01   5.8710507442594650E-01
         2         46   0.0000000000000000E+00   1.8351358044385119E+01   6.0046400708002301E-01   2.3689973968041089E+00
         2         47   0.0000000000000000E+00   3.3871437331795784E+00   7.4977415565358863E-01   5.1941407599281075E-01
         2         48   0.0000000000000000E+00   3.2621659477280569E+00   8.9811111685461620E-01   3.5947635424967073E-01
         2         49   0.0000000000000000E+00   9.6412488304572889E+01   3.3015183320460229E-01   2.1262822594809738E+00
         2         50   0.0000000000000000E+00   2.6520496675641496E+01   4.9913829378600238E-01   1.8137834017050001E+00
         2         51   0.0000000000000000E+00   2.9649901952262141E+01   2.4566958196208524E+00   3.7800935384405316E+00
         2         52   0.0000000000000000E+00   1.3717502345322686E+02   5.1849169501275085E+00   1.8940398080969047E+01
         2         53   0.0000000000000000E+00   2.0722148791120812E+01   4.9837292140081262E+00   3.4491126167535278E+00
         2         54   0.0000000000000000E+00   3.7813777330668316E+01   1.6137839196724386E+01   5.6385687093213894E+00
         2         55   0.0000000000000000E+00   9.0822093338834705E+01   3.2222735060407104E-01   1.9638337677083990E+00
         2         56   0.0000000000000000E+00   2.6540334826324010E+01   4.5609265038397256E-01   1.7946253287480747E+00
         2         57   0.0000000000000000E+00   2.9438577672098514E+01   2.3321102847223627E+00   3.6077285209002135E+00
         2         58   0.0000000000000000E+00   1.2990535679620348E+02   4.7668552876376378E+00   1.7705339289972052E+01
         2         59   0.0000000000000000E+00   2.0739161201672434E+01   4.9727460599610325E+00   3.3815179709238636E+00
         2         60   0.0000000000000000E+00   3.3716628766238884E+01   1.3725220256995774E+01   4.8049123472560318E+00
         2         61   0.0000000000000000E+00   2.8089860984950192E+01   8.7884657937432428E-02   5.9672816511595073E-01
         2         62   0.0000000000000000E+00   7.8390146737511728E+00   1.4202562519473219E-01   5.2529697023863697E-01
         2         63   0.0000000000000000E+00   8.7025612900420590E+00   7.1100289398228145E-01   1.0971670425188282E+00
         2         64   0.0000000000000000E+00   3.8950646888061520E+01   1.4769133450594520E+00   5.3590000602632859E+00
         2         65   0.0000000000000000E+00   6.0055163187903178E+00   1.4225904020735487E+00   9.7580223346084760E-01
         2         66   0.0000000000000000E+00   1.0697980659993332E+01   4.6410886644445988E+00   1.6365042493460689E+00
         2         67   0.0000000000000000E+00   2.2636142292835405E+01   7.4751567827814835E-02   4.8296457571214330E-01
         2         68   0.0000000000000000E+00   7.5106423056301646E+00   1.0323451603653966E-01   4.9433177426064112E-01
         2         69   0.0000000000000000E+00   8.3163886021731326E+00   6.1897041389138807E-01   9.6948122282215010E-01
         2         70   0.0000000000000000E+00   3.2539146211840396E+01   1.1193388350056872E+00   4.3060589375563678E+00
         2         71   0.0000000000000000E+00   5.7902779481030890E+00   1.3974885296645314E+00   9.1709191834175918E-01
         2         72   0.0000000000000000E+00   7.2630443406286913E+00   2.3710668893386804E+00   8.9002028458176785E-01
         2         73   0.0000000000000000E+00   2.3387900299025095E+01   6.3380459768995895E-02   5.3618357877654010E-01
         2         74   0.0000000000000000E+00   7.2906813854161632E+00   7.1013915983405632E-02   4.0100746024146855E-01
         2         75   0.0000000000000000E+00   7.5311204386247574E+00   4.4625129140359032E-01   7.4731108103419885E-01
         2         76   0.0000000000000000E+00   2.8888005076059926E+01   9.9212169903100744E-01   3.8188841690110822E+00
         2         77   0.0000000000000000E+00   5.6829546983384676E+00   7.0115072235669140E-01   6.2596208155163979E-01
         2         78   0.0000000000000000E+00   9.1761895029341964E+00   3.7464080786360010E+00   1.2879667531083601E+00
         2         79   0.0000000000000000E+00   2.0668517774039234E+01   5.4527721468932096E-02   4.3023645991139148E-01
         2         80   0.0000000000000000E+00   7.3027291172427979E+00   6.6430719159311619E-02   3.9899702378897678E-01
         2         81   0.0000000000000000E+00   7.7975505972270067E+00   4.2117546779689435E-01   7.0140706859119761E-01
         2         82   0.0000000000000000E+00   2.6389795821084405E+01   8.7719095332453834E-01   3.4066403267751886E+00
         2         83   0.0000000000000000E+00   4.5426759117299360E+00   6.9305311249053936E-01   6.0032689824261731E-01
         2         84   0.0000000000000000E+00   7.4330498763199664E+00   2.9325293398417549E+00   1.0166612994560789E+00
         2         85   0.0000000000000000E+00   7.1579657622515445E+00   1.6080330561753845E-02   1.3513492864233048E-01
         2         86   0.0000000000000000E+00   2.1406398124787489E+00   2.0221583440554716E-02   1.1959228150768285E-01
         2         87   0.0000000000000000E+00   2.2819901750477665E+00   1.2834633553625846E-01   2.1659790790746300E-01
         2         88   0.0000000000000000E+00   8.0241711797317716E+00   2.7297639279062014E-01   1.0401568569594835E+00
         2         89   0.0000000000000000E+00   1.7329579399467101E+00   2.0012494765734401E-01   1.7520433852730127E-01
         2         90   0.0000000000000000E+00   2.5149208296511376E+00   1.0928106925156351E+00   3.7904381541502152E-01
         2         91   0.0000000000000000E+00   4.7272266163498848E+00   1.0618092071678605E-02   8.9415223881820272E-02
         2         92   0.0000000000000000E+00   1.9542393477315974E+00   1.4985144980475811E-02   1.0508375829646657E-01
         2         93   0.0000000000000000E+00   2.1854110784368710E+00   1.0903300188369461E-01   1.8235145522273266E-01